    304
    /.Chem.Eng.Data1997,42,304-309
    Vapor Pressure Measurements of Chloric Acid and Chloric Acid+
    Sodium Chlorate Aqueous Solutions
    Brian R.Crump,M.Fazlul Hog,Bhart Indu,and William R.Ernst*
    School of Chemical Engineering,Georgia Institute of Technology,Atlanta,Georgia 30332
    Chloric acid+sodium chlorate mixtures have been proposed as a substitute for some of the sodium chlorateand sulfuric acid in the generation of chlorine dioxide.This paper continues our work on physical propertycharacterization of chloric acid sodium chlorate solutions.A dual ebulliometric setup was employed toevaluate the vapor pressure-temperature relationship of chloric acid and chloric acid sodium chloratesolutions.The natural log of vapor pressures for chloric acid solutions(1.01-3.82)mol L-1 over thetemperature range(35-79)C was a linear function of chloric acid concentration and the reciprocal ofthe temperature.Vapor pressures were determined for sodium chlorate+chloric acid solutions for(0.85-
    4.25)mol L-1 sodium chlorate,(0.73-3.59)mol L-1 chloric acid,and (35-83)C.All of the data werewell correl ated by an equation relating the natural log of vapor pressure to sodium chlorate concentration,chloric acid concentration,and the reciprocal of the temperature.Some solutions with high chlorate ionconcentrations at high temperatures developed a yellow or pink color.Vapor phase measurements showedthat the vapor pressures determined in these experiments are due to water with a trace contributionfrom another component.
    Introduction
    containing chloric acid or chloric acid sodium chlorate
    Chlorine dioxide,used in bleaching of wood pulp,is
    was ascertained by comparison with a reference system.
    generated at pulp and paper mills by reacting acidic sodium
    We measured the boiling points of chloric acid solutions
    chlorate solution with a reducing agent,such as hydrogen
    ranging in concentration from(1-3.8)mol L-1,and these
    peroxide(Burke et al.,1993):
    same chloric acid sol utions with varying degrees of sodiumchlorate added,in the temperature range(35-83)C.A
    2 NaClo3+H,O2+H,S0a→
    simple distillation system was used to elucidate the
    2CI02+02+2H20+Na2S04(1)
    components of the vapor phase above the sol ution.
    Experimental Section
    This reaction produces approximately 1 ton of sodiumsulfate per ton of chlorine dioxide,and mills typically
    Chemicals.A 1 mol L-1 chloric acid solution was
    produce 10-30 tons per day of chlorine dioxide(Sokol and
    prepared from sulfuric acid and barium chlorate as per
    Conkle,1993).
    Lamb et al.(1920).This solution was further concentrated
    Recent improvements in sulfur recovery have reduced
    to3.82molL-1[(3.82±0.02)molL-1H+and(3.81±0.04)
    the need for this sulfate byproduct in mills.Excess sulfate
    mol L-1 CIO3-]and stored in a Teflon bottle with a screw
    is sent to waste(Burke et al.,1993).A means of reducing
    top at(0-5)C.Experimental chloric acid solutions were
    the amount of sodium sulfate generated is to substitute
    prepared by accurately diluting the 3.82 mol L-1 stock
    chloric acid,HCIO3,for portions of the sodium chlorate and
    solution with water.Barium chlorate monohydrate (99%
    sulfuric acid.Chloric acid reacts as follows:
    purity)was purchased from Aldrich Chemical Co.andpurified by recrystallization prior to use.Sulfuric acid(18
    2HCI03+H202一2CI02+O2+2H0
    (2)
    mol L-1,Fisher Scientific,certified ACS)was carefullydiluted prior to mixing with the barium chlorate.Crystal-
    I n theory,the production of sodium sulfate can be tailored
    line sodium chlorate (certified ACS)was purchased from
    to consumer specifications by adjusting the proportions of
    Fisher Scientific.
    chloric acid and sodium chlorate in the feed.When chloric
    We employed a modified version of the Aieta et al.(1984)
    acid,sodium chlorate,and sulfuric acid are used,the
    method for the determination of chlorate ion.This method
    overall stoichiometry is the sum of contributions from
    requires several chemicals.Hydrochloric acid (12.1 mol
    reactions 1 and 2.
    L-1,reagent ACS)and sodium bicarbonate(certified ACS)
    Physical property information for chloric acid and chloric
    were purchased from Fisher Scientific.Sodium bromide
    acid sodium chlorate solutions is scarce in the literature,
    (certified ACS)and potassium iodide(certified ACS)were
    particularly at concentrations representative of chlorine
    each dissolved in water to produce 10 mass solutions.
    dioxide manufacture.Vapor-liquid equilibrium data and
    The titration was performed with (1+0.005)mol L-1
    water activities for these solutions have not been reported.
    certified ACS sodium thiosulfate (diluted to 0.1 mol L-1).
    Safety information(OSHA,1995)indicates that a 40 mass
    A simple acid-base titration was utilized to determine the
    chloric acid solution is unstable.We recently reported
    concentration of protons.A (2+0.02)mol L-1 certified
    solubilities and densities of chloric acid and chloric acid
    ACS sodium hydroxide solution (diluted to 0.1 mol L-1)was
    sodium chlorate solutions(Crump et al.,1995).This paper
    used as the titrant.Phenolphthalein (certified ACS),
    continues our examination of the physical property data
    prepared from phenolphthalein (solid)and ethanol,was
    of these solutions.A dual ebulliometric system was
    used as the indicator.Distilled water was used for all
    employed in which the vapor pressure of a solution
    dilutions.
    S0021-9568(96)00237-3 CCC:$14.00 1997 American Chemical Society

==========第1页==========
    Journal of Chemical and Engineering Data,Vol.42,No.2,1997305
    3.5
    15
    10
    13
    16
    1,5
    2.80x1032.90×1033.00x1033.t0x1033.20x1033.30x103
    15
    K/T
    Figure 2.Vapor pressure data for chloric acid solutions.HCIO3molL-1:(●)3.82：（◆）3.42；（☐）2.96；（4)2.46；(o)1.98:(△)1.5；▣)
    1.01.
    (International Critical Tables,1928)and 30.8 mass
    Figure 1.Experimental apparatus:(1)magneticstirrer;(2)water
    sulfuric acid (Vermeulen et al.,1982).The literature data
    bath;(3)250 mL round bottom flask-ground glass embedded(Lab
    were fit as In P=f(1/T)in order to interpolate experimental
    Glass:7270-138);(4)stirring bar;(5)temperature probe;(6)thermistor;(7)temperature controller;(8)cold water in;(9)
    vapor pressures.From the reference fluid boiling temper-
    condenser;(10)insulated tube;(11)cold water out;(12)trap;(13)
    ature,the vapor pressure was inferred from water vapor
    ballast;(14)needle valve;(15)to vacuum;(16)air inlet.
    pressure data in the CRC Handbook (Weast,1978).Usingthis pressure,the literature boiling point was determined
    Analytical Data.Figure 1 displays the experimental
    from the above mentioned fitted equation.For tempera-
    apparatus.This system is based on an ASTM Standard
    tures ranging from (32-69)C,the absolute deviation
    Method(E1719)and is similar to the method employed by
    between the measured values and the literature values for
    Iyoki et al.(1990).Two ebulliometers were employed,one
    8.9 mass sodium carbonate was 0.7 deg (observed at 68
    containing the reference fluid (distilled water)and the
    C).For a total of nine runs,the average absolute deviation
    other containing the test solution.The ebulliometer setup
    was 0.3 deg.For 30.8 mass sulfuric acid in the
    consisted of a 250 mL round bottom flask with ground glass
    temperature range of (46-72)C,the maximum absolute
    embedded on the interior walls (Lab Glass)to promote
    deviation was 0.6 deg.By titration,we determined that
    boiling and to reduce superheating.The flask was partially
    the sulfuric acid concentration did not change as a result
    submerged in a constant temperature(10.3 C)water bath
    of the boiling and refluxing.The stock sol ution of 3.82 mol
    (Fisher I sotemp I mmersion Circulator Model 730),and its
    L-1 chloric acid also exhibited no change in concentration
    contents,continuously agitated by a magnetic stirrer
    due to the boiling and refluxing.
    (Corning Model PC-351).The solution temperature was
    Chloric Acid Solutions.Table 1 shows the boiling
    measured by a thermistor (Cole Parmer Model 8402-00)
    point measurements for chloric acid solutions.The con-
    which was calibrated against a platinum resistance ther-
    centrations listed in column 1 were determined at 25 C
    mometer and is accurate to +0.1 deg.The flask was
    by titration.At each experimental concentration,there are
    connected to a vertical condenser where the vapor was
    4-6 data sets.Column 2 lists the mass HCIO3 deter-
    condensed by 5 C cooling water and returned to the flask.
    mined from the molarity and density from Crump et al.
    Vacuum in the system was generated by a water aspirator
    (1995).Columns 3 and 4 show data for the reference fluid;
    and was controlled by a needle valve.A 15 L ballast was
    column 3 is the temperature of the reference fluid,and
    connected to the vacuum line to correct for minor fluctua-tions in the pressure.Ice traps were used to collect any
    column 4,that of the reference fluid bath.Likewise,column 5 is the chloric acid solution temperature and
    vapor which may escape during the boiling process.Pre
    column 6 the chloric acid solution bath temperature.
    liminary experiments showed this not to be a problem,butthe traps were kept as a precautionary measure to protect
    Column 7 shows the vapor pressure of the system as
    the ballast.
    determined from the distilled water boiling points listedin column 3.
    In each experiment,distilled water and a test solutionof known concentration were added to the reference and
    Column 8 of Table 1 is the boiling point elevation,which
    test flasks,respectively.The pressure in the system was
    is the difference between the boiling point of the chloric
    set and the temperature raised until boiling occurred.In
    acid solution and the reference fluid.As expected,the
    order to reduce superheating,the difference between the
    boiling point elevation increases with increasing chloric
    temperature of the solution and bath temperature was
    acid concentration.The predicted boiling point elevation
    minimized.From the reference fluid temperature,the total
    (column 9),is the total solution ion molality multiplied by
    vapor pressure could be determined from the vapor pres
    an ebullioscopic constant.Atkins(1986)reports the ebul-
    sure tables for water.This pressure corresponded to the
    lioscopic constant for water as 0.51 K kg mol-1.In using
    pressure above the test solution,as both flasks were
    this constant,it was assumed that chloric acid(pKa =-2.7)
    connected to the same vacuum system.
    is completely dissociated (Mendiratta and Duncan,1993).
    The data were modeled as In(P)versus (1/7)for each
    Results and Discussion
    concentration,as shown in Figure 2.The lines drawn
    We tested the apparatus by measuring the vapor pres-
    through the data are linear fits.Moreover,the slopes of
    sure of two known systems:8.9 mass sodium carbonate
    all lines appear to be the same,suggesting that the

==========第2页==========
    306 I ournal of Chemical and Engineering Data,Vol.42,No.2,1997
    Table 1.Chloric Acid Vapor Pressure Data
    [HCIO31/
    t/℃
    vap
    act
    Pcalc from
    Pcalc from
    mol L-1
    [HCIO31/
    ref
    ref
    soln
    soln
    press/
    BPE/
    BPEpred/
    activity
    coeff
    eq 3/
    %
    eq 5/
    at25℃
    mass
    BP
    bath
    BP
    bath
    kPa
    ℃
    H2O
    H2O
    kPa
    error
    kPa
    3.82
    27.29
    37.5
    40.0
    42.0
    43.9
    6.45
    4.5
    4.5
    0.79
    0.85
    6.50
    0.76
    6.45
    27.29
    42.3
    45.7
    47.0
    49.9
    8.33
    4.7
    4.5
    0.79
    0.85
    8.42
    1.08
    8.35
    27.29
    51.4
    56.0
    56.3
    59.2
    13.21
    4.9
    4.5
    0.79
    0.85
    13.35
    1.04
    13.24
    27.29
    60.8
    63.9
    65.8
    69.2
    20.66
    5.0
    4.5
    0.80
    0.86
    20.83
    0.79
    20.64
    3.42
    24.84
    35.6
    39.6
    39.7
    43.6
    5.81
    4
    4.0
    0.80
    0.86
    5.91
    1.63
    5.88
    24.84
    45.2
    48.3
    48.9
    521
    9.68
    3.7
    4.0
    0.83
    0.89
    9.52
    -1.66
    9.47
    24.84
    63.2
    65.6
    67.2
    68.8
    23.05
    4.0
    4.0
    0.84
    0.90
    22.79
    -1.11
    22.64
    24.84
    52.6
    55.3
    56.8
    59.4
    14.01
    4.2
    4.0
    0.82
    0.88
    14.05
    0.24
    13.96
    2.96
    21.92
    63.4
    65.6
    667
    68.6
    23.26
    3.3
    3.4
    086
    0.92
    22.98
    -1.22
    22.88
    21.92
    39.8
    42.6
    43.2
    45.6
    7.30
    3.4
    3.4
    0.84
    0.89
    7.33
    0.42
    7.31
    21.92
    48.3
    50.5
    51.6
    54.8
    11.33
    3.3
    3.4
    0.85
    0.90
    11.24
    -0.83
    11.20
    21.92
    74.9
    79.8
    78.4
    81.2
    38.38
    3.5
    3.4
    0.87
    0.92
    38.35
    0.08
    38.15
    2.46
    18.61
    688
    71.4
    714
    73.4
    29.57
    2.6
    2.8
    0.89
    0.94
    29.31
    -0.88
    29.25
    18.61
    34.9
    38.4
    37.7
    41.1
    5.59
    2.8
    2.8
    0.86
    0.90
    5.66
    1.14
    5.66
    18.61
    45.3
    47.4
    47.9
    51.6
    9.73
    2.6
    2.8
    0.88
    0.92
    9.65
    -0.82
    9.65
    18.61
    56.8
    59.4
    59.7
    62.0
    17.15
    2.9
    2.8
    0.87
    0.92
    17.19
    0.27
    17.17
    7861
    760
    789
    78.6
    80.9
    40.18
    2.6
    2.8
    0.90
    0.94
    39.99
    -0.49
    39.89
    1.98
    15.3
    55.7
    59.2
    57.7
    60.7
    16.27
    2.0
    2.2
    0.91
    0.94
    16.14
    -0.79
    16.17
    15.3
    36.2
    39.1
    38.1
    41.7
    6.01
    1.9
    2.2
    0.90
    0.94
    5.97
    -0.65
    5.99
    15.3
    46.9
    49.5
    48.8
    51.7
    10.56
    1.9
    2.2
    0.91
    0.94
    10.
    -1.22
    10.45
    15.3
    39.1
    42.8
    410
    44.6
    7.03
    1.9
    2.2
    0.90
    0.94
    6.97
    -0.86
    6.99
    15
    11.85
    40.1
    43.8
    41.5
    45.3
    7.41
    1.4
    1.6
    0.93
    0.96
    7.39
    -0.34
    7.43
    11.85
    51.0
    53.0
    52.4
    54.3
    12.96
    1.4
    1.6
    0.93
    0.96
    12.89
    -0.55
    12.95
    11.85
    60.6
    63.9
    61.9
    65.6
    20.46
    1.3
    1.6
    0.94
    0.97
    20.32
    0.70
    20.40
    11.85
    75.7
    78.0
    77.3
    80.6
    39.68
    1.6
    1.6
    0.94
    0.96
    40.35
    1.69
    40.47
    1.01
    8.16
    34.3
    35.6
    35.3
    37.6
    5.41
    1.0
    1.1
    0.95
    0.96
    5.47
    1.07
    5.51
    8.16
    47.6
    49.8
    48.5
    51.5
    10.94
    0.9
    1.1
    0.96
    0.97
    10.96
    0.20
    11.05
    8.16
    42.1
    44.3
    42.9
    45.4
    8.24
    0.8
    1.1
    0.96
    0.98
    8.22
    0.30
    8.28
    8.16
    66.9
    69.6
    67.6
    69.6
    27.20
    0.7
    1.1
    0.97
    0.99
    27.26
    0.22
    27.44
    8.16
    74.5
    77.7
    75.6
    79.1
    37.89
    1.0
    11
    0.96
    0.98
    38.76
    2.31
    38.99
    8.16
    54.5
    59.1
    55.3
    59.1
    15.37
    0.8
    1.1
    0.96
    0.98
    15.35
    0.13
    15.46
    Table 2.Statistical Analysis of Equation 3
    Equation 3 takes the same form as the Clausius-
    predictor
    coeff
    st dev
    t ratio
    p
    VIF
    Clapeyron equation:
    constant
    18.7179
    0.0472
    396.8
    0.000
    1T,K
    -5228.79
    15.35
    -340.50.000
    1.0
    ln(P*)=-△vapH/RT+B
    (4)
    [HCIO3]
    -0.0667840.001895
    -35.2
    0.000
    1.0
    5=0.0102
    R2=
    R32=
    if we set AvapH/R B2 and B Bo+B(CHCIO /Co),where
    100.0%
    100.0%
    Co=1 mol L-1.In eq 4,P*is the vapor pressure,AvapH is
    Analysis of Variance
    the enthalpy of vaporization,R is the ideal gas constant,
    source
    DF
    Ss
    and B is a constant of integration.The lines represented
    MS
    in Figure 2 indicate that the enthalpy of vaporization for
    regression
    2
    12.1784
    6.0892
    58489.850
    0.000
    this system is in the range(43.1-43.9)kJ /mol.Within
    error
    28
    0.0029
    0.0001
    experimental error,this range of enthalpies corresponds
    total
    30
    12.1813
    to that of water.This observation led to the assumptionthat the vapor phase in these experiments consisted either
    concentration of HClO3 contributes an additive step to the
    solely of water or of water with only a trace concentration
    model equation.Hence,the data were correlated by the
    of other components.This assumption was confirmed in
    following equation:
    vapor characterization experiments described in a latersection.
    In(P/kPa)=Bo+B(CHCIO./mol L)+B2(K/T)3)
    On the basis of this assumption,and by applying Rauolt'slaw,water activity was calculated as the ratio of solution
    Best subsets and stepwise regression algorithms of Minitab
    vapor pressure to the saturated vapor pressure of water
    (Version 8)confirmed the validity of eq 3 as the "best"
    at the temperature of the chloric acid solution.These
    model for the data.Least squares estimates for the
    values are shown in Table 1,column 10.Column 11 lists
    parameters in the regression equation are Bo 18.7,B1=
    the activity coefficients of water determined by dividing
    -0.0668,and B2=-5229.Table 2 reports the details of
    activity by water mole fraction.
    the regression.Each estimated parameter is significant
    Sodium Chlorate+Chloric Acid Solutions.Table
    as well as the equation itself.An adjusted coefficient of
    3 displays vapor pressure data for solutions containing both
    multiple determination (Ra2)of 1.00 indicates that the
    chloric acid and sodium chlorate.The solution molarities
    model explains all of the scatter in the data.The model
    (columns 1 and 2)at 25 C were calculated from proton
    equation assumes that the error components are normally
    and chlorate (column 3)concentrations determined by
    and independently distributed with constant variance.
    titration.Chloric acid concentration is assumed equal to
    Residual analysis shows that the model assumptions hold
    the proton concentration,and sodium chlorate concentra
    for this regression (Neter et al.,1990).The calculated
    tion is determined as the difference between chlorate and
    vapor pressures and percent prediction errors in Table 1
    proton concentration.The titration procedures are listed
    (columns 12 and 13,respectively)were computed from 3.
    in Crump et al.(1995).As reported,the absolute deviation

==========第3页==========
    防딩쉬응守요당N898유유유은8n당8NP丈n억덩딩8당은의88응88Nd8oN8
    HooHHoooHoooHoHoHoooNooooHNNNiHomoHHooooHooNNonoNoNoomoHmoomN
    mriNiNi
    6660
    88よ守8守すす888당m은8당8%의8은자d당유98의8d8888더딩당<8o円Nよ딩8m888
    aue
    n忒9ooi9H9n日Fn日99n99母n9于寸日9手寸oiH导寸9HN9H8 o99o日9N日H哥oAN日Nom
    잉8유우m성당운운8옹쉬작잉유8%전M8M88NR서88유더888888당m98母8吕8Foi8oo9H9n导n9n99于n9N导寸寸gH导寸99N9日导oo导9oH9og
    于
    AIe
    용용용용힘향양용용용양쟁향용용용힘용8용：용향용용888용：88：용88향향용
    pue
    pue
    OE
    6666
    150
    '6 uwn joo ui
    RR99导导
    9988
    导mmmm aのの88
    母888寸
    寸寸
    wi
    心
    유서edmm유mnd유N유유mす유す유8sHiNi NN mmmmm
    Do/保8卡尽层民得民器然二8品用时品居日网8器吊房含始用8厨B贷令孕8常母的时洁的下袋手员卡岩899eN寸9em99”9只m9n98h9mN8只9寸88"：
    m oo
    肉内的府用胃用臀黑孕每尉食闲斜得骨件曾用贯周份周周周时时高高网g常用月得得阴殿用总是寸nnn寸
    우우888888889우♀8888丈8 EEGCA999RR8RSSS899998888588
    品
    3833
    iHHHNNNNN时时时
    HHHHNNNN时寸寸寸HHHHNN N NmmmHHHHNNN NmmmmHHHHN NN N
    oo
    ○
    elqe
    용용용용성용용용당당再폼닭욕의을을염의의의民民民5ò
    98888

==========第4页==========
    308 I ournal of Chemical and Engineering Data,Vol.42,No.2,1997
    Table 4.Statistical Analysis of Equation 5
    titration error).We are unsure at this time what accounted
    predictor
    coeff
    st dev
    t ratio
    VIF
    for the pink hue.Solutions with this pink color did exhibit
    an odor characteristic of chlorine dioxide.One unstable
    constant
    18.7076
    0.0363
    515.9
    0.000
    1/T,K
    -5221.2
    11.68
    -446.90.000
    1.0
    compound that has been reported as having a reddish-
    [HCIO31
    -0.0723320.001954
    -37
    0.000
    1.3
    brown color in the pure state is chlorine trioxide (Mass-
    [NaClO3]
    -0.0529570.001306
    -40.5
    0.000
    1.3
    chelein,1979).Dilute aqueous solutions are expected to
    5=0.01523
    R2=
    R32=
    have a light red or pink color.
    100.0%
    100.0%
    Vapor Phase Characterization.The color change
    Analysis of Variance
    associated with some of the solutions suggested thatDF
    SS
    MS
    F
    components other than water may be present in the vapor
    source
    0
    phase,such as chloric acid,chlorine dioxide,or another
    regression
    3
    46.527
    15.509
    66830.700
    0.000
    component.A simple one-stage distillation apparatus was
    error
    92
    0.021
    0.000
    total
    95
    46.548
    constructed to elucidate the contents of the vapor phase.
    A known volume (usually 110 mL)of a chloric acid
    acid sample,two to five separate vapor pressure experi-
    sodium chlorate mixture was charged to a flask submerged
    ments were performed.These solutions range in concen-
    in a constant temperature bath.The flask was carefully
    tration from (0.73-3.59)mol L-1 HCIO3 and (0.85-4.25)
    monitored to ensure that the solution did not boil.The
    mol L-1 NaClO3.The sodium chlorate+chloric acid boiling
    vapors from the liquid surface were condensed and collected
    temperatures range from(35-83)C.Species molalities
    in a separate flask submerged in an ice-water bath to
    and mass percents (not listed)were determined from
    prevent evaporation.An average of 15 mL was collected
    solution densities(Crump et al.,1995).
    for pH determination and further analysis.
    The data in Table 3 were combined with the chloric acid
    This system accurately duplicated literature partial
    vapor pressure data from Table 1 in an attempt to correlate
    pressure data for 70.1,40.8,and 26.9 mass HNO3
    all of the data by a single equation.Several variables were
    (Taylor,1928).Solutions containing chloric acid and
    used as potential parameters for this system (e.g.species
    sodium chlorate with a total chlorate ion concentration
    mass percents,molalities,molarities,total chlorate ion
    between (1.0-5.7)mol L-1 were examined in this system
    concentration,etc.)Stepwise regression and best subsets
    from(33-75)C.The pH of the condensate ranged from
    algorithms(Minitab,Version 8)suggest that an equation
    2.4-4(0.0037-0.0001 mol L-1 H+).This corresponds to a
    of the form
    mol fraction of H+in the range 10-5-10-6 and a partialpressure of(10-2-10-4)mmHg.Distilled water (initial pH
    In(P/kPa)=Bo+B(CHCIO,/mol L)+B2/(T/K)+
    =5.3),subjected to distillation in the same system at 61
    B3(CNacio /mol L-)(5)
    C,produced a condensate pH of 4.0.This confirmed thatthe measured pressures were that of water with a traceamount of another component in the vapor phase.At-
    correctly models the system.This is the same form of the
    tempts to classify this other component as chloric acid were
    equation utilized to correlate the chloric acid vapor pres
    unsuccessful as our method of evaluating chlorate ion
    sure data,with an additional term to account for the effect
    concentration is not sensitive enough to detect these trace
    of sodium chlorate.Least squares estimates of the param-
    concentrations.This analysis confirms the observation
    eters are Bo=18.7,f1=-0.0723,p2=-5221,andf3=
    -0.053.The estimates of the intercept and the indepen-
    that the enthalpy of vaporization of these solutions(43.1-
    43.9 kl /mol)is essentially that for pure water
    dent variable,1/7,are statistically the same as thosedetermined for eg 3
    Conclusions
    Table 4 shows the regression details for eq 5.Althoughthe regression contained 96 total data points,the generated
    The apparatus for this work was validated by reproduc-
    equation accounts for all of the scatter in the data(Ra2=
    ing vapor pressure data for 8.9 mass sodium carbonate
    100.0%).Each estimated parameter is highly significant
    and 30.8 mass sulfuric acid.The maximum deviation
    and uncorrelated,judging by the low variance inflation
    from the reported literature boiling points for these systems
    factors (VIFs).The variance inflation factor is a measure
    was 0.7 deg.The concentration of species in solution did
    of multicollinearity.Residual analysis showed that the
    not change as a result of boiling and refluxing.The data
    model assumptions hold for this regression (Neter et al.,
    for chloric acid solutions ranging in concentration from
    1990).Table 3,column 10,displays the predicted vaporpressures from eq 5.The percent errors,column 11,are
    (1.01-3.82)mol L-1 over the temperature range (35-79)
    C were well correlated by a simple equation of the form
    based on deviations of pressure from the experimenta
    In(P)=f(1/T)with an additive term for chloric acid
    values and not on natural logs of pressure.Column 14 of
    concentration.By applying the Clausius-Clapeyron equa-
    Table 1 displays the predicted solution vapor pressuresfrom eq 5.
    tion,the enthalpy of vaporization for this system was found
    Some solutions with high total chlorate concentrations
    to be between (43.1-43.9)kl /mol.
    at high temperatures developed a yellow,and sometimes
    Vapor pressures of sodium chlorate chloric acid solu-
    pink,color.This phenomenon generally did not occur in
    tions over the ranges (0.73-3.59)mol L-1 chloric acid,
    solutions until heated to 65 C,although a few solutions
    (0.85-4.25)mol L-1 sodium chlorate,and (35-83)C were
    developed a light yellow color at 50 C.The yellow color
    correlated by the same equation form as above with the
    can be attributed to chlorine dioxide which may form as a
    addition of a term to account for sodium chlorate concen-
    result of decomposition of the chlorate or perhaps by
    tration.Some solutions with high chlorate ion concentra-
    reaction of chlorate and chloride ions,present as an
    tions at high temperatures developed a yellow or pink color
    impurity in the sodium chlorate.The formation of chlorine
    Vapor phase composition measurements showed that the
    dioxide was not enough to alter the chlorate ion concentra-
    vapor pressure was that of water with a trace contribution
    tion,as solutions examined both before and after the
    from another component.The trace component of the
    experiment yielded the same concentration (within the
    vapor was not identified.

==========第5页==========
    Journal of Chemical and Engineering Data,Vol.42,No.2,1997 309
    Acknowledgment
    Masschelein,W.ChlorineDioxide,Ann Arbor Sqence:Ann Arbor,MI,1979.
    We thank Michael Burke and J oel Tenney from Eka
    Mendiratta,S.K.;Duncan,B.L.Chloric Acid and Chlorates.In Kirk-
    Nobel for helpful discussions regarding industrial chlorine
    Othmer Encyclopedia of Chemical Technology,4th ed.;Kroschwitz.
    dioxide manufacture.
    J.I.,Ed.;J ohn Wiley and Sons:New York,1993;Vol.5,p 998.
    Neter,].Wasserman,W.;Kutner,M.H.Applied Linear Statistical
    Mode's,3rd ed.;Irwin:Homewood,IL,1990.
    Literature Cited
    Material Safety Data Sheet:Chloric Acid:CAS No.7790-93-4;Oc-
    Aieta,E.M.;Roberts,P.V.;Hernandez,M.Determination of Chlorine
    cupational Health Services,Inc.:11 W.42nd St.,12th floor,New
    Dioxide,Chlorine,Chlorite and Chlorate in Water.J.Am.Water
    York,NY 10036,anuary 1995.
    Works Ass0c.1984,76(1,64-70.
    Sokol,J.C.;Conkle,J.Peroxide-Based CIO2 Process.Can.Pulp Pap.
    Standard Test Method for Vapor Pressure of Liquids by Ebulliometry;
    Assoc.-Technical Sect.-Prepr.1993,B47-B50.
    ASTM Standard Method E1719;ASTM:Philadelphia,PA,1995.
    Taylor,G.B.In International Critical Tables of Numerical Data
    Atkins,P.W.Physical Chemistry,3rd ed.;W.H.Freeman and Co.:
    Physics,Chemistry and Technology;Washburn,E.,Ed.;McGraw
    New York,1986.
    Hill:New York,1928;Vol.3,p 304.
    Burke,M.;Tenney,.Indu,B.;Hog,M.F.;Carr,S.;Ernst,W.R.
    Vermeulen,T.;Dong,J.;Robinson,S.Vapor Liquid Equilibrium of The
    Kinetics of Hydrogen Peroxide-Chlorate Reaction in the Formation
    Sulfuric Acid-Water System.AlChE Spring National Meeting,
    of Chlorine Dioxide.Ind.Eng.Chem.Res.1993,32,1449-1456.
    Anaheim,CA,1982;In Perry's Chemical Engineers'Handbook,6th
    Crump,B.;Hog,M.F.;Indu,B.;Ernst,W.R.Solubility and Density
    ed.;MCGraw Hill:New York,1984.
    of Chloric Acid+Sodium Chlorate Solutions.J.Chem.Eng.Data
    Weast,R.C.CRC Handbook of Chemistry and Physics,59th ed.;CRC
    1995,40(6),1106-1110.
    Press:West Palm Beach,FL,1978.
    International Critical Tables of Numerical Data,Physics,Chemistryand Technology;Washburn,E.,Ed.;McGraw Hill:New York,1928;
    Received for review J uly 11,1996.Accepted November 19,1996.
    Vol.3,p372.
    We gratefully acknowledge Akzo Nobel,Inc.for providing financial
    lyoki,S.;Iwasaki,S.;Uemura,T.Vapor Pressures of the Water-
    support for this research.
    Lithium Bromide-Lithium l odide System./Chem.Eng.Data 199035(4),429-433.
    JE9602374
    Lamb,A.B.;Bray,W.C.;Geldard,W.J.The Preparation of lodic Acidand its Anhydride.J.Am.Chem.Soc.1920,42,1636-1648.
    Abstract published in Advance ACS Abstracts,anuary 15,1997

==========第6页==========
