    CRYSTAL
    GROWTH
    DESIGN
    2002
    VOL.2,NO.4
    249-253
    Perspective
    Asymmetric Synthesis of Optically Active Sodium
    Chlorate and Bromate Crystals
    Richard M.Pagni*.t and Robert N.Compton*.t.+
    Departments of Chemistry and Physics,University of Tennessee
    Knoxville Tennessee 37996
    Received May 23,2002
    ABSTRACT:The readily available sodium chlorate is an interesting ionic compound because,although achiral,itforms optically active crystals.When unperturbed,an aqueous solution of sodium chlorate yields a random distributionof and crystals on evaporation.Some chiral perturbations profoundly alter this distribution,however.Theseinclude seeding,the addition of the optically active cosolutes D-mannitol and D-sorbitol,and the energetic and chiralbeta particles and positrons.The chiral weak interaction inherent in all atomic nuclei and thus atoms and moleculesdoes not alter the distribution of+and-crystals.Stirring during evaporation,an achiral perturbation,affects thedistribution of crystals in a given crystallization;when crystals from a large number of experiments are considered,however,the distribution of and -crystals is random.
    There is much current interest in optically active
    space groups are innately chiral.Their chirality does
    crystals.These solid and liquid crystals can be used to
    not depend on whether the molecules in the crystal are
    create interesting optical phenomena,with potential
    themselves chiral.Chiral crystals,which are fairly
    utility in optical devices.1-10 In addition,they have been
    common,thus exist in enantiomeric forms,just as chiral
    used successfully as media in which to carry out
    mol ecules do.
    asymmetric photochemistry,11-12 a task that has proven
    Optically active molecules can only crystallize in a
    very difficult to do in fluid solution.13 Optically active
    chiral space group.Racemic molecules,on the other
    crystals have also provided very useful environmentsfor asymmetric synthesis,often yielding products with
    hand,most often form racemic heterochiral crystals.19
    About 10%of the time,however,racemates yield a
    very high enantiomeric excesses (ee).14.15 There has also
    conglomerate of equal numbers of d and homochiral
    been much speculation that optically active crystals,
    crystals,19 where d or dextrorotary refers to a or
    namely,quartz,may have provided the chiral influence
    clockwise rotation of plane-polarized light passing
    through which optically active molecules,essential for
    through the crystal,and or levorotatary to a -or
    life,came to be in the prebiotic world.16 To favor a
    counterclockwise rotation.This spontaneous resol ution
    specific chiral selection,it is necessary that one enan-
    is the method Louis Pasteur used to convert racemic
    tiomer of quartz was more common in the prebiotic
    sodium ammonium tartrate into its enantiomers.1,1'-
    world than the other enantiomer.
    Binaphthyl,a chiral molecule,which forms chiral
    In general,if one is to use optically active crystals
    crystals,is an interesting case because it spontaneously
    for synthetic,prebiotic,optical,and other applications,
    resolves into homochiral crystals when crystallized from
    one must be able to control the chirality of crystals
    acetone and forms racemic heterochiral crystals when
    during synthesis.This issue will be addressed in our
    crystallized from other solvents.20.21 Sodium chlorate
    brief perspective.Before doing so,a little background
    (NaClO3)represents another interesting case.It is an
    is useful.
    achiral ionic compound consisting of spherical sodium
    It is well-known that molecules crystallize in one of
    ions and CIO3-anions of Cav symmetry.Sodium chlorate
    230 possible space groups.17 Of these 230 groups,only
    crystallizes in the chiral space group P23.22,23 Figure
    65 are chiral.18 Crystals residing in one of the 65 chiral
    1 is a stereographic picture of one of the enantiomersof NaClO3.When crystallized from water,sodium chlo
    To whom correspondence should be addressed.E-mail:
    rate yields large,well-formed colorless d and crystals.
    rpagni@utk.edu;rcompton@utk.edu.
    Department of Chemistry.
    The crystals yield normal optical rotatory dispersion
    Department of Physics.
    curves and,when viewed through cross polarizers,
    10.1021/cg0200154 CCC:$22.00 @2002 American Chemical Society
    Published on Web 06/11/2002

==========第1页==========
    250 Crystal Growth Design,Vol.2,No.4,2002
    Perspective
    c8
    ©
    西
    o
    ⑥
    西
    Sodium Chlorate/Bromate P213
    Sodium Chlorate/Bromate P213
    Figure 1.Stereographic picture of sodium chlorate/bromate in the P213 space group.afford beautiful colors as seen in Figure 2 for NaClO3and the related NaBrO3.Note that although NaClOaand NaBrO3 share the same space group,their crystalmorphologies are different.
    COONa
    H一OH
    HO-H
    COONH4
    sodium ammonium tartrate
    1,1'-binaphthy
    What is desired is a methodology to convert an achiralmolecule such as NaClO3 into all d or all crystals.Ifone defines the enantiomeric excess ee as (#d-#)/(#d+#),where #d and are,respectively,the numberof d and crystals formed in a given experiment,all dcrystals will yield ee=+1 and all crystals will yieldee =-1.Leaving aside the possible effect of the weakinteraction in nuclei to be discussed later,asymmetricsynthesis in the absence of external (chiral)perturba-tions is not possible.As shown by Kipping and Popemore than 100 years ago24 and more recently by
    Kondepudi,25-27 Wu and co-workers,28 and Pagni,Comp-ton,and co-workers,29 one obtains a 50:50 mixture of dand NaClO3 crystals from water if a sufficient numberof crystallization experiments are performed.However.on an individual basis,there may be small statisticaldeviations from equal numbers of d and crystals.Aplot of frequency with which a specific ee is observed inan experiment versus ee yields a Gaussian curvecentered at ee =0,the result expected for the creation
    Figure 2.Plane-polarized light passing through sodiumchlorate(rectangular)and bromate(triangular)crystals.Dif-
    of a random distribution of d and crystals.It is also
    ferent colors appear by rotating the second polarizer
    worth noting that the number of crystals formed in agiven experiment depends on how rapidly the water is
    yields and d NaClO3 crystals,respectively.30 This is a
    evaporated.Fast evaporation yields numerous small
    consequence of the fact that,although NaClO3 and
    crystals,while very slow evaporation will yield 1 or a
    NaBrO3 have the same absolute configuration,they
    few very large crystals.
    rotate light in the opposite direction.22.23 Not surpris-
    Seeding with optically active crystals is perhaps the
    ingly,seeding aqueous NaBrO3 with d or NaClO3
    most obvious method used to perturb the distribution
    crystals yields or d NaBrO3 crystals,respectively.
    of crystals.Seeding aqueous NaClO3 with either d or
    It is important to note that the above seeding experi-
    NaClO3 yields d or NaClO3 crystals,respectively.30
    ments were carried out on stirred solutions in which
    Interestingly,seeding aqueous NaClO3 with d or
    secondary nucleation is encouraged.When a static
    NaBrO3,which also crystallizes in the P213 space group,
    aqueous solution of NaClO3 is seeded with a NaBrO3

==========第2页==========
    Perspective
    Crystal Growth Design,Vol.2,No.4,2002 251
    seed crystal,approximately equal numbers of d and
    either d or /This would present a genuine example of
    NaClO3 crystals are generated.31 What then occurs upon
    asymmetric induction.
    stirring when no seed crystals are added?
    One can also perturb the ee distribution of crystal
    In 1990,Kondepudi showed that stirring a sodium
    growth using chiral particles.Spin-polarized electrons
    chlorate solution during crystallization yields either
    are generated in the beta decay of radioactive atoms as
    mostly d or crystals,i.e.,ee+1 or-1,in a given
    a consequence of the fact that nuclei are chiral due to
    experiment,but ee 0 if the crystals from a large
    presence of the weak nuclear force.36.37 Beta particles
    number of experiments are considered.25 Since stirring
    are very energetic and mostly left-handed (an observer
    is not a chiral perturbation,the direction of stirring is
    will see the oncoming electrons spinning dlockwise).The
    not correlated with the sign of the ee.Temperature is
    combination of translation and spin renders the elec-
    found to greatly affect the resulting ee.Vogl et al.
    trons chiral.Positrons,i.e.,positively charged electrons,
    showed that crystallization above 40 C yields ee's of+
    also resulting from radioactive decay,are also spin
    1.30 Below 40 C,the ee's drop off.Thus,in a given
    polarized.Unlike beta particles,they are mostly right-
    experiment one will obtain predominantly d or crys-
    handed.
    tals,but one cannot predict in advance which of the
    When a room-temperature aqueous solution of
    homochiral crystals will dominate.This is a consequence
    NaClO3 was exposed to beta particles (38Sr90 source
    of the fact that the primary nucleating event randomly
    yielding 0.554 Mev electrons,and from its decay
    gives a d or crystallite.Secondary nucleation from the
    produce 39Y90,2.28 MeV electrons;7.4 x 107 Bq).
    primary crystallite will ensure that the chirality of the
    NaClO3 crystals were produced which were predomi-
    initial crystal is maintained during the remainder of the
    nantly d with an overall ee=0.32.29 In a second set of
    crystallization.Kondepudi contends that secondary
    experiments using a more energetic source of beta rays
    nudei grow in the environment around the chiralsurface which may itself be chiral.27 These new crys-
    (1.6 x 109 Bq;1 x 109 beta particles/s),an overall ee=
    0.47 was obtained.These and the positron experiments
    tallites are then swept away by convection and seed the
    described below were performed over a period of two
    growth of still new crystals.Martin and Wu,on the
    years.Half of all of the experiments gave ee's at or very
    other hand,have presented evidence that stirring
    close to 1.About 10%of the experiments gave ee's at or
    breaks off crystallites from the growing primary crys-
    close to -1,with the remainder giving ee's scattered
    tal,28
    about 0.Since approximately 80%of the electrons are
    Stirring during crystallization is an effective method
    eft-handed,there appears to be a correlation between
    to induce spontaneous resolution of NaClO3 crystals,but
    the electron helicity and crystal helicity.The data
    the outcome,i.e.,d or /cannot be predicted a priori.
    indi cate that left-handed electrons favor d crystals while
    Chiral perturbations,however,may yield homochiral
    right-handed electrons favor crystals.Independent
    crystals in a controlled,predictable manner.D-M annitol
    nucleating events not influenced by the beta particles
    and D-sorbitol are polyhydroxy sugars derived from
    yield the ee's scattered about 0.
    D-mannose and D-glucose,respectively.Crystallizationof NaClO3 from water containing the cosolute D-man-
    Positron exposure (11Na22 source yielding 0.54 MeV
    nitol yields d NaClO3 exdusively (ee=1),while aqueous
    positrons and 1.38 and 2.75 MeV gamma rays;108 Bq)
    NaBrO3 with the same cosolute yields mainly NaBrO3
    afforded mostly crystals (ee =-0.55).About half the
    (ee=-0.97).32 Recall that d NaClO3 and NaBrO3 have
    experiments gave ee=-1.Again,there is a correlation
    the same absolute configuration.D-Sorbitol has the
    between positron helicity (mostly right-handed)and
    opposite effect,yielding mostly NaClO3(ee=-0.9)and
    crystal helicity.
    d NaBrO3(ee 1).Interestingly,the sugars,D-and L-
    Why do left-handed electrons and positrons appar-
    arabinose and D-sucrose,and the crystals,and
    ently favor d crystals and right-handed particles favor
    quartz,have no effect on the distribution of d and
    crystals?It is unclear at present.Energy from the beta
    NaClO3 crystals.33
    partices is deposited into the first few millimeters ofthe sol ution where evaporation and presumably primary
    CH2OH
    CH2OH
    nucleation is taking place.It is known that,whenH-
    -OHenergetic electrons collide with the surface of water,a
    HO-
    一H
    H
    complex chemistry is initiated which produces showersHO-
    H
    HO
    H-
    -OH
    H-
    of polarized secondary electrons and circularly polarized
    -OH
    gamma rays.38 Primary nudeation seems to involve two
    H--OH
    H-
    OH
    events:an initial bringing together of solute molecules
    CHOH
    CH2OH
    to form an amorphous-like droplet,which in a second
    D-mannitol
    D-sorbitol
    step organizes itself into the crystallite.39 The polarizedsecondary electrons and gamma rays may influence the
    Mannitol and sorbitol profoundly affect the distribu-
    way in which the droplet organizes itself.Also,any role
    tion of d and NaClO3 and NaBrO3 crystals,albeit in
    that the hydrated electron might play in the process is
    opposite senses.This unexpected effect could be due to
    unknown.
    competitive inhibition in which a sugar preferentially
    A summary of the sodium chlorate experiments
    binds to the surface of one enantiomer of the crystal over
    described in this paper is shown in Table 1.Seeding-
    the other,thus inhibiting growth of bound crystals.This
    and-stirring seems to be the best current method for
    has been seen in other cases.34 Sugars are known to bind
    making optically active NaClO3(and NaBrO3)of known
    metal cations.35 If the optically active sugar is com-
    absolute configuration.In time,the use of chiral co
    plexed to a sodium cation involved in primary nude
    solutes and spin-polarized electrons and positions may
    ation,the resulting crystallite may preferentially be
    be equally useful,but their modes of action are too

==========第3页==========
    252 Crystal Growth Design,Vol.2,No.4,2002
    Perspective
    Table 1.Asymmetric Synthesis of NaClO3 Crystals
    perturbation
    is perturbation chiral?
    result
    none
    no
    50:50 distribution of d and crystals
    stirring
    no
    spontaneous resolution;50:50 distribution of d and overall
    NaClO3 seeding with stirring
    yes
    d seed→d crystals,/seed→/crystal
    NaBrO3 seeding with stirring
    yes
    d seed-/crystal,seed-d crystal
    NaClO3,seeding,no stirring
    yes
    no effect
    D-mannitol cosolute
    yes
    d crystals exdusively
    D-sorbitol cosolute
    yes
    crystals greatly favored
    D-and L-arabinose cosolutes
    yes
    no effect
    and-quartz
    yes
    no effect
    D-sucrose
    yes
    no effect
    B-partides
    yes
    d crystals favored
    positrons
    yes
    crystals favored
    weak interaction in nuclei
    yes
    none
    poorly understood for this to be the case now.They may
    The myriad experiments described above are impor-
    be more useful,however,as probes into the mechanism
    tant because they may ultimately afford a better
    of the still poorly understood primary nucleation.
    understanding of the still poorly understood primary
    There is yet another chiral perturbation that could
    nucleation.They are also important from a practical
    affect the asymmetric synthesis of optically active
    point of view as well because they show how to make
    crystals.This is due to the weak interaction which is
    and crystals of all sorts,useful in creating new optical
    present in all nuclei.Of the four fundamental forces in
    phenomena and devices in a controlled manner.
    nature,only the weak force,which is responsible forbeta decay,is fundamentally chiral.Because electrons
    Acknowledgment.The authors thank the National
    in atoms penetrate their nudei,atoms and thus all
    Science Foundation for support of their work on chiral-
    molecules are innately chiral.This results in an energy
    ity.We also thank graduate student Rodney Sullivan
    difference between pairs of enantiomers.The parity
    for assistance in preparing Figures 1 and 2.
    violating energy difference is called PVED.For mol-ecules such as amino acids which only contain atoms
    References
    with small atomic numbers(Z),PVED is calculated to
    (1)Ivchenko,E.L.;Pikus,G.E.Ferroelectrics 1982,43,131-
    be exceedingly small (~10-15 eV).Larger PVEDs are
    136.
    expected for molecules containing atoms with large Z
    (2)Pellat-Finet,P.;Lebreton,G.Proc.SPIE-Int.Soc.Opt.Eng.1983.400.151-158.
    because PVED scales approximately with Z6.2.See ref
    (3)Kukhtarev,N.V.;Dovgalenko,G.E.;Starkov,V.N.App/.
    40 and references therein for more details.What is
    Phy5.A.1984,A33,227-230.
    exciting is the possiblity that this very small effect in
    (4)Nestrizhenko,Y.A.Opt.Spektrosk.1988,65,210-212.
    individual molecules may be amplified in polymers and
    (5)Berezhnoi,A.A.;Plakhotnik,E.N.Opt.-Mekhi Prom-St.
    crystals where many molecules exist.41 We have sum
    1990,5,19-23.
    (6)Brodin,M.S.;Volkov,V.I.;Kukhtarev,N.V.;Privalko,A.
    marized these studies in an earlier review.16 The
    V.0pt.Commun.1990,76,21-24.
    implications of parity violating interactions in asym-
    (7)Tomiyasu,H.;Fukushima,Y.;Uesu,Y.;Toyoda,S.Ferro
    metric transformations have also been discussed by
    electrics1992,134,335-340.
    Avalos et al.42 Salam recently speculated that the Z
    (8)Murray,J.T.;Peyghambarian,N.;Powell,R.C.;Stolzen-
    interactions might explain why L-amino acids are
    berger,R.A.;J ie,S.;J assemnejad,B.Phys.Rev.A.:At.
    Mol.,Opt.Phys.1994,49,4066-4076.
    dominant in living systems.43 He postulated that quan-
    (9)Konstantinova,A.F.;Tronin,A.Y.;Nabatov,B.V.NATO
    tum mechanical cooperative and condensation effects
    AS1Sa,Sa.31997,28,19-32.
    similar to those in Cooper-pairing and Bose Einstein
    (10)Muthuraman,M.;Le Fur,Y.;Bagieu-Beucher,M.;Masse
    condensation could give rise to a second-order phase
    R.;Nicound,.-F.;Desiraju,G.R./Mater.Chem.1999,9,2233-2239.
    transitions below a critical temperature T.Such second
    (11)Sakamoto,M.Chem.Eur.J.1997,3,684-689
    order phase transitions in amino acids could give rise
    (12)Leibovitch,M.;Olovsson,G.;Scheffer,R.;Trotter,Pure
    to a preponderance of the L-enantiomers.Very recently,
    App1.Chem.1997,69,815-823.
    Wang et al.described three tests of the Salam proposal
    (13)Kagan,H.B.;Balavoine,G.;Moradpour,A./Mol.Evol
    on single crystals of D-and L-alanine (and valine).44
    1974.4,41-48.
    (14)Soai,K.;Osanai,S.;Kadowaki,K.;Yonekubo,S.;Shibata
    Differential scanning calorimetry,mass susceptibility,
    T;Sato,1.J.Am.Chem.S0c.1999,121,11235-11236.
    and Raman spectroscopy revealed different tempera-
    (15)Sato,I.;Kadowaki,K.;Soai,K.Angew.Chem.,Int.Ed.2000
    ture-dependent differences for the enantiomeric crystals
    39,1510-1512.
    The differences usually occurred near 270 K,which is
    (16)Compton,R.N.;Pagni,R.M.Adv.At.Mol.Opt.Phys.,in
    press.
    very close to the freezing point of water.Verification of
    (17)Brand,J.C.D.;Speakman,J.C.Molecular Structure-The
    these results is crucial and is ongoing in our laborato
    Physical Approach;Edward Arnold:London,1960;pp 31-
    ries.
    36.
    PVED may have an effect on the behavior of D-and
    (18)Sakamoto,M.Chem.Eur.J.1997,3,684-689
    L-alanine crystals.However,it clearly has no effect on
    (19)Collet,A.In Problems and Wonders of Chiral Molecules
    Simonyi,M.,Ed.;Akademai Kidao:Budapest,1990;pp 91-
    the asymmetric crystallization of NaClO3 in the absence
    108.
    of other perturbations because one obtains a random
    (20)Bader,Y.;Cheung,K.L.C.;Cooke,A.S.;Harris,M.M.J
    distribution of d and crystals.Its effect on the crystal
    Chem.S0c.1965,1543-1544.
    growth of molecules containing atoms with much larger
    (21)Di Bari,L.;Pescitelli,G.;Salvadori,P..Am.Chem.Soc
    1999,121,7998-8004.
    Z's has yet to be examined,including NaBrO3 and
    (22)Abrahams,S.C.;Bernstein,J.L.Acta Crystallogr.1977
    Nal03.45
    B33,3601-3604.

==========第4页==========
    Perspective
    Crystal Growth Design,Vol.2,No.4,2002 253
    (23)Abrahams,S.C.;Glass,A.M.;Nassau,K.Solid State
    (35)Angyal,S.]Adv.Carbohydr.Chem.Biochem.1989,47,
    Commun.1977,24,515-516.
    1-43.
    (24)Kipping,F.S.;Pope,W.]J.Chem.Soc.(London)Trans.
    (36)Lee,T.D.;Yang,C.N.Phys.Rev.1956,104,254-258.
    1898,73,606-617.
    (37)Wu,C.S.;Ambler,E.;Hayward,R.W.;Hoppes,D.D.;
    (25)Kondepudi,D.K.;Kaufman,R.;Singh,N.Scence 1990,250
    H udson,R.P.Phys.Rev.1957,105,1413-1415.
    975-976.
    (38)Mozander,A.Fundamentals of Radiation Chemistry;Aca-
    (26)Kondepudi,D.K.;Bullock,K.L.;Digits,J.A.;Hall,K.
    demic Press:San Diego,1999.
    Miller,J.M.J.Am.Cham.Soc.1993,115,10211-10216.
    (39)Anwar,.Boateng,P.K./.Am.Chem.Soc.1998,120
    (27)Kondepudi,D.K.;Asakura,K.Acc.Chem.Res.2001,34,
    9600-9604.
    946-954.
    (40)Lahamer,A.S.;Mahurin,S.M.;Compton,R.N.;House,
    (28)Martin,B.;Tharrington,A.;Wu,X.-I.Phys.Rev.Lett.1996
    D.;Laerdahl,J.K.;Lein,M.;Schwerdtfeger,P.Phys.Rev.
    77,2826-2829.
    Lt.2000.85,4470-4473.
    (29)Mahurin,S.;MCGinnis,M.;Bogard,S.;Hulett,L.D.;
    (41)Yamagata,Y./Theor.Bio/.1966,11,495-498.
    Pagni,R.M.;Compton,R.N.Chirality 2001,13,636-640.
    (42)Avalos,M.;Babiano,R.,Cintas,P.;J imenez,J.L.;Palacios,
    (30)Vogl,O.;Qin,M.;Bartus,J aycox,G.D.Monatsh.Chem.
    J.C.Tetrahedron:Asymmetry 2000,11,2845-2874.(43)Salam,A./.Mol.Evol.1991,33,105-113.
    1995,126,67-73.
    (31)Buhre,T.;Durand,D.;Kondepudi,D.K.;Laudadio,J.;
    (44)Wang,W.;Yi,F.;Ni,Y.;Zhao,Z.;in,X.;Tang,Y./Biol.
    Spilker,S.Phys.Rev.L ett.2000,84,4405-4408.
    Phys.2000,26,51-65.
    (32)Niedermaier,T.;Schlenk,W.,Jr.Chem.Ber.1972,105,
    (45)See Keszthelyi,L./Biol.Phys.1994,20,241-245 for the
    possible effect of PVED on the enatiomers of /and d-
    3470-3478.
    tris(1,2-ethanediamine)iridium complexes.Zis large(77)for
    (33)Pagni,R.M.;Compton,R.N.,unpublished results.
    iridium.
    (34)Addadi,L.;Weinstein,S.;Gati,E.;Weissbach,I.;Lahav,
    M.J.Am.Chem.Soc.1982,104,4610-4617.
    CG0200154

==========第5页==========
